# vtk DataFile Version 4.2
vtk output
ASCII
DATASET UNSTRUCTURED_GRID
POINTS 2 float
0.313388 -0.1945 0.338 0.313388 0.1945 0.338 


CELLS 1 3
2 0 1 

CELL_TYPES 1
3

CELL_DATA 1
FIELD FieldData 1
vtkOriginalCellIds 1 1 vtkIdType
1353 
POINT_DATA 2
FIELD FieldData 1
vtkOriginalPointIds 1 2 vtkIdType
1352 1353 
